
Predictions were generated on 28-Mar-2017 at 18:45:02 using FAST (v8.15.00a-bjj, 12-Apr-2016), compiled as a 64-bit application using single precision
 linked with  NWTC Subroutine Library (v2.08.00, 5-Apr-2016); ElastoDyn (v1.03.02a-bjj, 8-Apr-2016); InflowWind (v3.02.00a-bjj, 11-Apr-2016); AeroDyn (v15.02.03, 12-Apr-2016); ServoDyn (v1.05.00a-bjj, 11-Mar-2016); HydroDyn (v2.05.00, 15-Mar-2016); SubDyn (v1.03.00, 11-Apr-2016)

Description from the FAST input file: FAST Certification Test #19: NREL 5.0 MW Baseline Wind Turbine with OC3 Monopile RF Configuration, for use in offshore analysis

Time      	Wind1VelX 	Wind1VelY 	Wind1VelZ 	OoPDefl1  	IPDefl1   	TwstDefl1 	BldPitch1 	Azimuth   	RotSpeed  	GenSpeed  	TwHt1TPxi 	TwHt1TPyi 	TTDspTwst 	PtfmSurge 	PtfmSway  	PtfmRoll  	PtfmPitch 	Spn2MLxb1 	Spn2MLyb1 	RootFxc1  	RootFyc1  	RootFzc1  	RootMxc1  	RootMyc1  	RootMzc1  	RotTorq   	LSSGagMya 	LSSGagMza 	YawBrFxp  	YawBrFyp  	YawBrFzp  	YawBrMxp  	YawBrMyp  	YawBrMzp  	RtAeroFxh 	RtAeroFyh 	RtAeroFzh 	RtAeroMxh 	RtAeroMyh 	RtAeroMzh 	GenPwr    	GenTq     	Wave1Elev 	HydroFxi  	HydroFyi  	HydroMxi  	HydroMyi  	M2N1MKxe  	M2N1MKye  	M1N1MKxe  	M1N1MKye  	-ReactFXss	-ReactFYss	-ReactFZss	-ReactMXss	-ReactMYss	-ReactMZss
(s)       	(m/s)     	(m/s)     	(m/s)     	(m)       	(m)       	(deg)     	(deg)     	(deg)     	(rpm)     	(rpm)     	(m)       	(m)       	(deg)     	(m)       	(m)       	(deg)     	(deg)     	(kN·m)    	(kN·m)    	(kN)      	(kN)      	(kN)      	(kN·m)    	(kN·m)    	(kN·m)    	(kN·m)    	(kN·m)    	(kN·m)    	(kN)      	(kN)      	(kN)      	(kN·m)    	(kN·m)    	(kN·m)    	(N)       	(N)       	(N)       	(N·m)     	(N·m)     	(N·m)     	(kW)      	(kN·m)    	(m)       	(N)       	(N)       	(N·m)     	(N·m)     	(N*m)     	(N*m)     	(N*m)     	(N*m)     	(N)       	(N)       	(N)       	(Nm)      	(Nm)      	(Nm)      
    0.0000	 8.122E+00	 5.511E-01	-1.947E-02	 0.000E+00	 0.000E+00	 0.000E+00	 0.000E+00	 0.000E+00	 1.210E+01	 1.174E+03	 0.000E+00	-0.000E+00	 0.000E+00	 0.000E+00	 0.000E+00	 0.000E+00	 0.000E+00	 2.141E+01	-5.423E+01	 3.174E+01	 1.934E+00	 4.537E+02	-1.232E+01	 3.791E+02	 1.554E+01	-1.355E-03	-1.905E+03	-4.007E+01	 2.048E+01	 3.169E+00	-3.327E+03	 3.545E+01	-3.282E+02	-1.748E-04	 7.749E+05	-8.275E+03	-2.450E+03	 4.891E+06	 1.070E+06	 7.071E+05	 5.000E+03	 4.309E+01	 3.689E-01	-1.308E+05	-1.943E+03	-1.388E+04	 5.040E+05	-1.973E+03	 2.364E+05	-2.975E+03	 1.213E+05	-5.778E+04	-1.142E+03	-8.454E+06	 6.985E+03	-4.152E+05	-4.657E-04
    1.0000	 8.183E+00	 6.697E-02	-1.296E-01	 4.049E+00	-9.435E-01	 0.000E+00	 0.000E+00	 7.008E+01	 1.154E+01	 1.145E+03	 2.518E-01	-5.531E-02	 0.000E+00	 1.389E-02	-1.637E-03	 6.313E-03	 5.093E-02	 6.320E+02	 1.977E+03	 2.043E+02	-1.913E+02	 4.746E+02	 4.600E+03	 7.250E+03	-8.088E+01	 4.401E+03	 8.004E+02	 2.242E+03	 3.781E+02	-6.979E+00	-3.440E+03	 4.549E+03	 1.729E+02	 1.444E+03	 4.251E+05	-9.257E+01	-7.980E+02	 1.655E+06	-5.368E+04	 4.287E+05	 4.079E+03	 3.603E+01	-3.519E-01	-1.492E+05	-5.608E+03	-3.102E+04	 2.956E+05	 3.829E+06	 3.005E+07	 3.775E+06	 3.186E+07	 1.417E+05	 2.531E+03	-8.566E+06	 3.747E+06	 3.318E+07	 1.452E+06
    2.0000	 7.928E+00	 1.222E-01	-7.312E-02	 3.988E+00	-6.783E-01	 0.000E+00	 0.000E+00	 1.376E+02	 1.096E+01	 1.046E+03	 6.273E-01	-8.619E-02	 0.000E+00	 3.832E-02	-2.527E-03	 1.041E-02	 1.354E-01	 2.603E+02	 1.925E+03	 2.088E+02	-1.372E+02	 6.303E+02	 3.039E+03	 7.110E+03	-4.073E+01	 3.520E+03	 2.074E+03	 5.434E+02	 7.958E+02	-9.109E+01	-3.495E+03	 3.766E+03	 6.631E+02	 7.067E+02	 4.393E+05	-3.265E+03	 1.667E+03	 1.725E+06	 2.149E+05	-3.629E+05	 3.170E+03	 3.065E+01	-1.318E-01	 3.698E+05	 3.501E+04	 1.877E+05	-2.682E+06	 6.681E+06	 7.622E+07	 5.976E+06	 8.632E+07	 1.228E+06	 8.812E+04	-8.630E+06	 5.106E+06	 9.809E+07	 6.994E+05
    3.0000	 7.858E+00	 1.094E-01	 1.919E-01	 3.336E+00	 5.749E-02	 0.000E+00	 0.000E+00	 2.035E+02	 1.091E+01	 1.061E+03	 3.195E-01	-3.405E-03	 0.000E+00	 1.948E-02	-1.117E-03	 3.150E-03	 6.772E-02	-5.816E+02	 1.580E+03	 1.678E+02	 6.893E+01	 6.461E+02	-1.799E+03	 5.932E+03	 2.063E+01	 1.412E+03	 3.116E+02	-1.233E+03	 4.229E+02	 7.092E+01	-3.465E+03	 1.377E+03	 1.207E+03	 9.517E+02	 4.716E+05	 8.718E+03	 9.518E+03	 2.235E+06	-1.556E+06	-4.050E+05	 3.095E+03	 2.950E+01	 7.782E-01	 4.920E+05	-2.967E+04	-1.556E+05	-3.244E+06	 1.343E+06	 3.717E+07	 2.378E+06	 4.334E+07	 8.913E+05	-1.181E+05	-8.592E+06	 3.550E+06	 5.175E+07	 9.588E+05
    4.0000	 8.500E+00	-1.017E-01	 1.250E-01	 3.574E+00	 1.425E-01	 0.000E+00	 0.000E+00	 2.683E+02	 1.080E+01	 1.057E+03	 1.303E-01	-5.297E-03	 0.000E+00	 7.709E-03	 1.854E-03	-5.611E-03	 2.727E-02	-5.998E+02	 1.708E+03	 1.591E+02	 1.608E+02	 4.864E+02	-3.105E+03	 6.075E+03	 3.054E+01	 3.407E+03	-7.574E+02	-2.012E+03	 2.203E+02	 1.181E+01	-3.471E+03	 3.456E+03	-4.202E+02	 7.670E+02	 4.416E+05	 4.873E+03	-7.098E+02	 1.982E+06	-5.815E+05	 6.996E+05	 2.948E+03	 2.821E+01	 1.468E+00	 5.700E+04	 1.746E+04	 9.147E+04	 1.571E+05	-2.681E+06	 1.529E+07	-4.043E+06	 1.741E+07	 2.108E+05	 1.448E+05	-8.596E+06	-5.486E+06	 1.967E+07	 7.772E+05
    5.0000	 8.143E+00	-7.021E-02	 3.082E-01	 3.501E+00	-1.333E-01	 0.000E+00	 0.000E+00	 3.322E+02	 1.047E+01	 1.004E+03	 4.252E-01	-8.297E-02	 0.000E+00	 2.468E-02	-3.740E-03	 1.376E-02	 8.990E-02	-2.762E+02	 1.689E+03	 1.671E+02	 5.800E+01	 3.149E+02	-9.415E+02	 6.093E+03	 5.585E+00	 2.805E+03	-2.339E+03	 1.174E+01	 5.700E+02	-6.497E+01	-3.520E+03	 3.022E+03	 1.255E+01	 9.321E+02	 4.008E+05	 1.429E+03	-3.791E+03	 1.617E+06	 1.410E+05	 8.057E+05	 2.709E+03	 2.728E+01	 1.059E+00	-5.568E+05	 8.503E+02	 3.981E+03	 4.687E+06	 8.066E+06	 5.272E+07	 8.546E+06	 5.701E+07	 5.137E+04	-4.760E+04	-8.650E+06	 9.022E+06	 5.844E+07	 9.336E+05
    6.0000	 8.056E+00	-1.292E-01	-3.299E-02	 4.219E+00	-6.555E-01	 0.000E+00	 0.000E+00	 3.485E+01	 1.038E+01	 1.011E+03	 4.388E-01	-5.111E-02	 0.000E+00	 2.407E-02	-3.007E-03	 1.053E-02	 8.969E-02	 1.925E+02	 2.053E+03	 2.011E+02	-1.253E+02	 3.061E+02	 2.775E+03	 7.332E+03	-2.195E+01	 1.780E+03	-9.431E+02	 1.396E+03	 5.928E+02	-1.021E+01	-3.508E+03	 1.841E+03	 6.091E+02	 2.970E+02	 4.304E+05	-7.876E+03	-3.093E+03	 2.000E+06	 1.353E+06	 5.385E+04	 2.647E+03	 2.649E+01	-4.689E-01	-8.941E+05	-1.206E+04	-6.335E+04	 5.774E+06	 5.891E+06	 5.425E+07	 6.779E+06	 5.617E+07	-2.852E+05	-9.482E+04	-8.639E+06	 7.724E+06	 5.432E+07	 2.928E+05
    7.0000	 8.419E+00	 2.897E-02	 9.230E-02	 4.000E+00	-9.513E-01	 0.000E+00	 0.000E+00	 9.669E+01	 1.029E+01	 1.002E+03	 1.809E-01	 1.174E-02	 0.000E+00	 1.024E-02	 2.260E-03	-7.373E-03	 3.724E-02	 6.204E+02	 1.958E+03	 1.776E+02	-2.096E+02	 4.533E+02	 4.851E+03	 6.620E+03	-5.690E+01	 2.894E+03	 5.543E+02	 1.549E+03	 2.691E+02	 4.441E+01	-3.464E+03	 2.818E+03	 5.666E+01	 3.215E+01	 4.351E+05	-8.740E+03	 5.983E+03	 2.131E+06	 9.871E+05	-1.591E+06	 2.542E+03	 2.565E+01	-1.490E+00	-1.781E+05	 1.243E+04	 6.560E+04	 1.512E+06	-3.849E+06	 2.178E+07	-5.015E+06	 2.355E+07	 5.831E+04	 1.228E+05	-8.590E+06	-6.238E+06	 2.446E+07	 3.056E+04
    8.0000	 8.343E+00	-1.402E-02	 1.752E-01	 3.669E+00	-6.243E-01	 0.000E+00	 0.000E+00	 1.579E+02	 1.010E+01	 9.749E+02	 2.710E-01	-4.307E-02	 0.000E+00	 1.803E-02	-1.936E-03	 6.992E-03	 6.142E-02	 2.921E+02	 1.790E+03	 1.763E+02	-9.823E+01	 5.838E+02	 2.525E+03	 6.311E+03	-3.385E+01	 2.458E+03	 2.601E+03	 3.250E+02	 3.733E+02	-6.743E+00	-3.463E+03	 2.521E+03	-6.768E+02	 4.622E+02	 4.019E+05	-1.894E+03	 2.420E+03	 1.819E+06	 1.125E+05	-7.366E+05	 2.420E+03	 2.511E+01	-7.784E-01	 6.257E+05	-7.900E+03	-4.214E+04	-3.418E+06	 4.021E+06	 3.268E+07	 4.395E+06	 3.983E+07	 1.009E+06	-4.137E+04	-8.589E+06	 4.806E+06	 4.944E+07	 4.619E+05
    9.0000	 7.982E+00	-8.320E-02	 2.570E-01	 3.122E+00	-6.670E-02	 0.000E+00	 0.000E+00	 2.184E+02	 1.002E+01	 9.740E+02	 4.443E-01	-7.854E-02	 0.000E+00	 2.734E-02	-3.901E-03	 1.423E-02	 9.581E-02	-3.014E+02	 1.495E+03	 1.648E+02	 7.928E+01	 5.435E+02	-1.308E+03	 5.674E+03	 7.392E+00	 1.925E+03	 8.739E+02	-1.272E+03	 5.756E+02	-6.492E+01	-3.479E+03	 2.078E+03	 7.561E+02	 1.653E+02	 4.015E+05	 5.908E+03	 1.871E+03	 1.869E+06	-1.120E+06	-1.239E+05	 2.363E+03	 2.454E+01	 3.222E-01	 4.992E+05	 4.666E+03	 2.552E+04	-4.071E+06	 8.287E+06	 5.336E+07	 8.903E+06	 6.113E+07	 1.106E+06	-5.919E+04	-8.609E+06	 9.496E+06	 7.142E+07	 1.579E+05
   10.0000	 8.440E+00	-2.421E-01	 7.458E-02	 3.314E+00	 5.382E-02	 0.000E+00	 0.000E+00	 2.782E+02	 9.961E+00	 9.682E+02	 3.067E-01	-1.347E-02	 0.000E+00	 1.822E-02	-9.887E-05	 4.570E-04	 6.504E-02	-4.243E+02	 1.593E+03	 1.579E+02	 1.443E+02	 3.827E+02	-2.502E+03	 5.790E+03	 2.087E+01	 2.619E+03	-1.086E+03	-1.866E+03	 4.239E+02	 3.464E+01	-3.456E+03	 2.598E+03	-4.753E+00	 4.532E+02	 4.181E+05	 5.741E+03	-1.416E+03	 2.075E+06	-8.942E+05	 4.487E+05	 2.297E+03	 2.400E+01	 7.154E-01	 1.044E+05	-7.121E+03	-3.802E+04	-1.714E+06	 3.025E+05	 3.720E+07	 2.297E+05	 4.116E+07	 5.200E+05	 3.703E+03	-8.583E+06	 1.905E+05	 4.589E+07	 4.520E+05
   11.0000	 8.350E+00	 1.915E-02	 1.253E-01	 3.928E+00	-2.483E-01	 0.000E+00	 0.000E+00	 3.377E+02	 9.850E+00	 9.524E+02	 1.942E-01	 1.760E-03	 0.000E+00	 1.088E-02	 1.259E-03	-3.998E-03	 3.953E-02	-1.801E+02	 1.906E+03	 1.634E+02	 3.928E+01	 2.414E+02	-4.167E+02	 6.422E+03	 1.391E+01	 2.230E+03	-1.432E+03	 4.595E+02	 2.752E+02	 2.734E+01	-3.431E+03	 2.255E+03	 6.208E+02	 7.785E+02	 4.098E+05	 6.755E+02	-9.907E+03	 2.070E+06	 5.008E+05	 1.446E+06	 2.229E+03	 2.367E+01	 4.304E-01	-1.029E+05	 7.698E+03	 4.057E+04	 4.512E+05	-2.027E+06	 2.307E+07	-2.777E+06	 2.492E+07	 1.382E+05	 7.891E+04	-8.557E+06	-3.564E+06	 2.629E+07	 7.783E+05
   12.0000	 7.827E+00	 1.442E-01	-7.276E-02	 3.755E+00	-6.373E-01	 0.000E+00	 0.000E+00	 3.665E+01	 9.800E+00	 9.522E+02	 3.477E-01	-6.758E-02	 0.000E+00	 2.052E-02	-3.626E-03	 1.293E-02	 7.379E-02	 2.509E+02	 1.833E+03	 1.712E+02	-1.240E+02	 2.577E+02	 2.793E+03	 6.347E+03	-3.181E+01	 2.043E+03	-1.200E+03	 2.073E+03	 4.772E+02	-3.888E+01	-3.443E+03	 2.200E+03	-5.409E+01	 8.071E+02	 3.812E+05	 1.013E+03	-4.789E+03	 1.759E+06	 1.765E+05	 9.251E+05	 2.197E+03	 2.334E+01	 2.857E-01	-1.472E+05	-8.529E+03	-4.486E+04	 1.177E+06	 7.361E+06	 4.253E+07	 8.216E+06	 4.685E+07	 3.334E+05	-8.968E+04	-8.571E+06	 9.110E+06	 5.038E+07	 8.074E+05
   13.0000	 7.590E+00	 1.338E-01	-7.395E-02	 3.985E+00	-8.269E-01	 0.000E+00	 0.000E+00	 9.514E+01	 9.724E+00	 9.442E+02	 3.597E-01	-4.979E-02	 0.000E+00	 2.077E-02	-1.772E-03	 6.815E-03	 7.488E-02	 4.275E+02	 1.951E+03	 1.882E+02	-1.899E+02	 4.000E+02	 4.138E+03	 6.877E+03	-4.440E+01	 2.371E+03	 1.337E+03	 1.104E+03	 4.791E+02	-3.301E+01	-3.469E+03	 2.535E+03	 8.552E+02	 1.061E+03	 4.031E+05	-7.484E+03	 2.935E+03	 2.043E+06	 7.497E+05	-8.068E+05	 2.139E+03	 2.292E+01	-8.088E-02	-1.180E+05	 6.332E+03	 3.355E+04	 5.451E+05	 4.142E+06	 4.334E+07	 4.100E+06	 4.733E+07	 3.554E+05	 7.387E+03	-8.598E+06	 4.028E+06	 5.099E+07	 1.063E+06
   14.0000	 7.347E+00	-1.442E-01	 2.693E-02	 3.620E+00	-4.944E-01	 0.000E+00	 0.000E+00	 1.534E+02	 9.690E+00	 9.383E+02	 2.438E-01	 9.050E-03	 0.000E+00	 1.490E-02	 1.253E-03	-4.294E-03	 5.231E-02	 8.760E+01	 1.757E+03	 1.706E+02	-8.817E+01	 5.364E+02	 1.881E+03	 6.193E+03	-1.337E+01	 2.173E+03	 1.897E+03	 4.548E+02	 3.446E+02	 4.758E+01	-3.453E+03	 2.113E+03	-5.357E+01	 2.716E+02	 4.026E+05	-1.720E+03	 3.650E+03	 2.056E+06	-1.545E+05	-6.063E+05	 2.109E+03	 2.274E+01	 1.467E-02	 1.902E+05	-3.143E+03	-1.717E+04	-6.570E+05	-2.369E+06	 2.909E+07	-2.822E+06	 3.351E+07	 5.055E+05	 4.368E+04	-8.580E+06	-3.259E+06	 3.854E+07	 2.721E+05
   15.0000	 7.405E+00	 8.298E-02	-1.261E-02	 3.036E+00	 2.204E-02	 0.000E+00	 0.000E+00	 2.114E+02	 9.643E+00	 9.364E+02	 2.835E-01	-2.526E-02	 0.000E+00	 1.673E-02	-7.040E-04	 2.778E-03	 5.970E-02	-4.356E+02	 1.454E+03	 1.549E+02	 8.263E+01	 5.314E+02	-1.709E+03	 5.492E+03	 1.777E+01	 2.074E+03	 1.099E+03	-1.553E+03	 3.958E+02	-3.805E-01	-3.449E+03	 2.140E+03	 2.329E+02	 6.295E+02	 3.900E+05	 4.414E+03	 4.540E+03	 1.940E+06	-9.752E+05	-2.613E+05	 2.086E+03	 2.253E+01	 5.645E-01	 4.541E+04	 2.938E+02	 1.307E+03	-2.704E+05	 1.717E+06	 3.401E+07	 1.635E+06	 3.791E+07	 4.148E+05	 8.330E+03	-8.576E+06	 1.552E+06	 4.203E+07	 6.269E+05
   16.0000	 7.868E+00	 1.108E-02	-6.592E-03	 3.268E+00	 1.755E-01	 0.000E+00	 0.000E+00	 2.692E+02	 9.622E+00	 9.332E+02	 3.633E-01	-7.211E-02	 0.000E+00	 2.116E-02	-3.361E-03	 1.232E-02	 7.628E-02	-6.071E+02	 1.565E+03	 1.620E+02	 1.595E+02	 3.863E+02	-3.139E+03	 5.842E+03	 3.498E+01	 2.242E+03	-5.789E+02	-1.691E+03	 4.905E+02	-5.887E+01	-3.471E+03	 2.407E+03	 4.055E+02	 4.844E+02	 3.996E+05	 3.171E+03	 1.862E+03	 2.049E+06	-5.106E+05	 9.161E+04	 2.060E+03	 2.233E+01	 1.468E-01	-1.269E+05	 2.618E+02	 1.013E+03	 4.697E+05	 7.189E+06	 4.415E+07	 7.673E+06	 4.826E+07	 3.654E+05	-4.835E+04	-8.600E+06	 8.157E+06	 5.193E+07	 4.833E+05
   17.0000	 7.824E+00	 7.668E-01	 2.514E-01	 3.677E+00	-1.215E-01	 0.000E+00	 0.000E+00	 3.269E+02	 9.607E+00	 9.313E+02	 3.083E-01	-2.115E-02	 0.000E+00	 1.816E-02	-4.930E-04	 1.989E-03	 6.490E-02	-2.998E+02	 1.778E+03	 1.675E+02	 7.329E+01	 2.412E+02	-1.196E+03	 6.291E+03	 2.390E+01	 2.158E+03	-1.589E+03	-1.788E+02	 4.178E+02	 9.590E+00	-3.486E+03	 2.197E+03	 4.653E+02	 5.653E+02	 4.041E+05	-2.498E+02	-6.408E+03	 2.129E+06	 4.519E+05	 8.950E+05	 2.050E+03	 2.227E+01	 1.965E-01	 5.527E+03	-1.512E+02	-2.638E+02	-1.845E+03	 1.249E+06	 3.706E+07	 1.151E+06	 4.126E+07	 4.115E+05	 9.779E+03	-8.614E+06	 1.053E+06	 4.528E+07	 5.661E+05
   18.0000	 7.719E+00	 6.180E-01	-1.092E-02	 3.837E+00	-6.125E-01	 0.000E+00	 0.000E+00	 2.450E+01	 9.596E+00	 9.311E+02	 2.623E-01	 5.106E-03	 0.000E+00	 1.525E-02	 1.148E-03	-3.789E-03	 5.496E-02	 2.456E+02	 1.874E+03	 1.648E+02	-9.747E+01	 2.251E+02	 2.420E+03	 6.312E+03	-2.519E+01	 2.095E+03	-1.783E+03	 1.180E+03	 3.780E+02	 3.728E+01	-3.470E+03	 2.043E+03	-2.402E+02	 1.178E+02	 4.090E+05	-9.449E+02	-3.015E+03	 2.143E+06	 5.826E+05	 3.621E+05	 2.044E+03	 2.221E+01	-1.156E-01	 1.074E+04	 3.041E+03	 1.632E+04	-1.251E+06	-2.006E+06	 3.189E+07	-2.557E+06	 3.454E+07	 3.584E+05	 5.662E+04	-8.597E+06	-3.122E+06	 3.781E+07	 1.117E+05
   19.0000	 7.583E+00	 5.588E-01	 5.763E-03	 3.794E+00	-9.056E-01	 0.000E+00	 0.000E+00	 8.199E+01	 9.571E+00	 9.284E+02	 3.267E-01	-5.124E-02	 0.000E+00	 2.043E-02	-2.344E-03	 8.539E-03	 7.084E-02	 5.854E+02	 1.861E+03	 1.730E+02	-2.023E+02	 3.544E+02	 4.646E+03	 6.371E+03	-5.755E+01	 2.180E+03	 4.335E+02	 1.593E+03	 4.346E+02	-2.740E+01	-3.468E+03	 2.285E+03	 4.702E+02	 5.062E+02	 3.962E+05	-3.090E+03	 1.592E+03	 2.032E+06	 3.794E+05	-6.036E+05	 2.029E+03	 2.210E+01	 4.303E-01	 4.702E+05	-4.067E+03	-2.194E+04	-2.356E+06	 4.954E+06	 3.866E+07	 5.339E+06	 4.561E+07	 8.950E+05	-4.057E+04	-8.595E+06	 5.743E+06	 5.420E+07	 5.068E+05
   20.0000	 8.061E+00	 6.287E-01	 2.454E-01	 3.542E+00	-6.892E-01	 0.000E+00	 0.000E+00	 1.394E+02	 9.559E+00	 9.269E+02	 3.471E-01	-6.133E-02	 0.000E+00	 2.049E-02	-2.758E-03	 1.017E-02	 7.355E-02	 3.624E+02	 1.732E+03	 1.679E+02	-1.372E+02	 5.034E+02	 3.189E+03	 6.006E+03	-3.608E+01	 2.119E+03	 1.574E+03	 9.596E+02	 4.686E+02	-4.652E+01	-3.479E+03	 2.227E+03	 1.850E+02	 9.536E+01	 4.045E+05	-8.380E+02	 7.755E+02	 2.096E+06	-6.522E+04	-5.052E+05	 2.018E+03	 2.203E+01	 1.148E+00	-5.372E+04	 2.078E+03	 1.080E+04	-1.158E+05	 5.970E+06	 4.238E+07	 6.307E+06	 4.653E+07	 4.277E+05	-3.267E+04	-8.607E+06	 6.634E+06	 5.082E+07	 9.124E+04
   21.0000	 8.067E+00	 8.929E-01	 7.225E-01	 3.038E+00	-1.787E-01	 0.000E+00	 0.000E+00	 1.967E+02	 9.558E+00	 9.270E+02	 2.749E-01	-7.152E-04	 0.000E+00	 1.584E-02	 6.019E-04	-2.000E-03	 5.714E-02	-1.646E+02	 1.469E+03	 1.524E+02	 3.044E+01	 5.382E+02	-3.860E+02	 5.381E+03	 3.441E+00	 2.109E+03	 1.267E+03	-8.414E+02	 3.824E+02	 3.678E+01	-3.481E+03	 2.067E+03	 3.949E+02	 2.369E+02	 4.044E+05	 4.206E+03	 1.817E+03	 2.147E+06	-7.717E+05	-5.965E+04	 2.017E+03	 2.201E+01	 4.325E-01	-2.119E+05	-2.857E+03	-1.505E+04	 2.720E+06	-1.072E+06	 3.295E+07	-1.349E+06	 3.636E+07	 1.381E+05	 2.622E+04	-8.609E+06	-1.612E+06	 3.843E+07	 2.361E+05
   22.0000	 8.299E+00	 3.898E-01	 9.760E-01	 3.271E+00	 1.267E-01	 0.000E+00	 0.000E+00	 2.540E+02	 9.531E+00	 9.245E+02	 2.800E-01	-1.483E-02	 0.000E+00	 1.603E-02	-2.948E-05	 4.188E-04	 5.857E-02	-5.422E+02	 1.568E+03	 1.596E+02	 1.488E+02	 4.217E+02	-2.836E+03	 5.793E+03	 3.195E+01	 2.133E+03	 2.795E+02	-1.681E+03	 3.855E+02	 1.277E+01	-3.464E+03	 2.114E+03	 1.890E+02	-3.053E+01	 4.035E+05	 2.813E+03	-7.010E+02	 2.099E+06	-5.280E+05	 2.698E+05	 2.003E+03	 2.192E+01	 4.524E-01	-4.929E+05	 2.756E+03	 1.465E+04	 5.073E+06	 3.980E+05	 3.441E+07	 1.148E+05	 3.725E+07	-1.019E+05	 2.970E+04	-8.591E+06	-1.814E+05	 3.744E+07	-3.515E+04
   23.0000	 8.468E+00	-4.061E-02	 2.126E-01	 3.491E+00	 1.677E-02	 0.000E+00	 0.000E+00	 3.112E+02	 9.524E+00	 9.236E+02	 3.353E-01	-6.768E-02	 0.000E+00	 1.844E-02	-3.331E-03	 1.209E-02	 6.847E-02	-4.493E+02	 1.680E+03	 1.614E+02	 1.115E+02	 2.609E+02	-2.086E+03	 6.023E+03	 2.920E+01	 2.092E+03	-1.644E+03	-8.787E+02	 4.677E+02	-4.754E+01	-3.463E+03	 2.233E+03	 3.381E+02	 4.739E+02	 4.035E+05	 2.037E+03	-2.012E+03	 2.086E+06	-5.132E+04	 5.274E+05	 1.995E+03	 2.185E+01	-7.075E-01	-7.068E+05	-1.748E+03	-9.048E+03	 5.886E+06	 6.995E+06	 4.105E+07	 7.585E+06	 4.316E+07	-2.613E+05	-5.987E+04	-8.591E+06	 8.183E+06	 4.171E+07	 4.784E+05
   24.0000	 8.345E+00	 2.204E-01	 2.557E-01	 3.944E+00	-4.369E-01	 0.000E+00	 0.000E+00	 8.375E+00	 9.550E+00	 9.267E+02	 3.099E-01	-3.436E-02	 0.000E+00	 1.694E-02	-1.272E-03	 4.778E-03	 6.331E-02	 8.775E+00	 1.917E+03	 1.733E+02	-4.330E+01	 2.048E+02	 1.136E+03	 6.605E+03	-6.276E+00	 2.140E+03	-1.647E+03	 5.792E+02	 4.295E+02	-8.217E+00	-3.471E+03	 2.177E+03	 2.422E+02	 1.695E+02	 4.165E+05	-2.316E+03	-1.977E+03	 2.259E+06	 5.274E+05	 9.886E+04	 2.005E+03	 2.189E+01	-1.548E+00	-5.913E+05	-5.496E+02	-2.881E+03	 2.841E+06	 2.844E+06	 3.850E+07	 2.920E+06	 3.947E+07	-1.569E+05	-7.867E+03	-8.598E+06	 2.999E+06	 3.820E+07	 1.743E+05
   25.0000	 8.525E+00	-4.981E-02	-8.125E-02	 4.085E+00	-8.007E-01	 0.000E+00	 0.000E+00	 6.574E+01	 9.569E+00	 9.282E+02	 2.850E-01	 5.669E-03	 0.000E+00	 1.737E-02	 1.163E-03	-3.886E-03	 6.091E-02	 3.979E+02	 1.997E+03	 1.818E+02	-1.761E+02	 3.038E+02	 3.868E+03	 6.805E+03	-3.577E+01	 2.122E+03	-1.603E+02	 1.717E+03	 3.900E+02	 3.866E+01	-3.466E+03	 2.089E+03	 2.687E+02	 3.880E+02	 4.151E+05	-6.240E+03	 1.656E+03	 2.224E+06	 7.954E+05	-5.612E+05	 2.017E+03	 2.198E+01	-2.070E+00	 4.500E+05	-1.385E+02	-1.398E+03	-4.602E+06	-2.088E+06	 3.396E+07	-2.602E+06	 3.865E+07	 8.189E+05	 5.125E+04	-8.594E+06	-3.114E+06	 4.574E+07	 3.922E+05
   26.0000	 8.620E+00	-3.204E-01	 1.177E-01	 3.594E+00	-7.185E-01	 0.000E+00	 0.000E+00	 1.232E+02	 9.572E+00	 9.285E+02	 3.493E-01	-4.247E-02	 0.000E+00	 2.369E-02	-1.834E-03	 6.717E-03	 7.908E-02	 3.613E+02	 1.752E+03	 1.711E+02	-1.612E+02	 4.714E+02	 3.524E+03	 6.152E+03	-4.127E+01	 2.142E+03	 1.227E+03	 1.455E+03	 4.540E+02	-1.787E+01	-3.455E+03	 2.186E+03	 1.706E+02	 1.113E+01	 4.026E+05	-1.335E+02	 2.204E+03	 2.055E+06	-2.254E+05	-5.858E+05	 2.023E+03	 2.204E+01	-4.858E-01	 1.432E+06	-4.057E+03	-2.238E+04	-1.052E+07	 3.915E+06	 4.083E+07	 4.180E+06	 5.124E+07	 1.895E+06	-2.859E+04	-8.583E+06	 4.465E+06	 6.819E+07	 8.017E+03
   27.0000	 8.545E+00	 4.275E-03	 1.325E-01	 3.188E+00	-2.803E-01	 0.000E+00	 0.000E+00	 1.806E+02	 9.588E+00	 9.300E+02	 3.586E-01	-6.442E-02	 0.000E+00	 2.321E-02	-2.978E-03	 1.091E-02	 7.894E-02	-8.214E+01	 1.543E+03	 1.573E+02	-1.040E+01	 5.489E+02	 3.851E+02	 5.561E+03	-6.992E+00	 2.166E+03	 1.197E+03	-7.352E+02	 4.605E+02	-4.766E+01	-3.464E+03	 2.314E+03	 8.408E+02	 5.558E+02	 4.085E+05	 6.015E+03	 5.384E+03	 2.156E+06	-1.175E+06	-5.248E+05	 2.029E+03	 2.207E+01	 2.128E+00	 1.058E+06	-1.805E+02	-1.131E+03	-7.982E+06	 6.367E+06	 4.201E+07	 6.797E+06	 5.078E+07	 1.527E+06	-4.316E+04	-8.592E+06	 7.229E+06	 6.458E+07	 5.575E+05
   28.0000	 8.447E+00	 2.705E-01	 1.446E-02	 3.216E+00	 8.571E-02	 0.000E+00	 0.000E+00	 2.382E+02	 9.610E+00	 9.321E+02	 3.010E-01	-1.416E-02	 0.000E+00	 1.719E-02	-1.264E-04	 6.239E-04	 6.252E-02	-4.942E+02	 1.544E+03	 1.628E+02	 1.300E+02	 4.717E+02	-2.466E+03	 5.811E+03	 2.890E+01	 2.149E+03	 4.862E+02	-1.630E+03	 4.159E+02	 1.760E+01	-3.469E+03	 2.148E+03	 2.955E+02	 2.933E+02	 4.153E+05	 5.060E+03	-8.416E+02	 2.181E+06	-7.969E+05	 4.677E+05	 2.043E+03	 2.217E+01	 3.110E+00	-2.316E+05	-3.953E+03	-2.169E+04	 1.225E+06	 4.363E+05	 3.661E+07	 3.060E+05	 3.944E+07	 1.723E+05	 1.100E+04	-8.597E+06	 1.945E+05	 4.128E+07	 2.964E+05
   29.0000	 8.255E+00	 1.030E-02	 2.357E-01	 3.318E+00	 8.323E-02	 0.000E+00	 0.000E+00	 2.959E+02	 9.593E+00	 9.306E+02	 2.813E-01	-6.953E-03	 0.000E+00	 1.384E-02	 4.605E-04	-1.351E-03	 5.442E-02	-4.967E+02	 1.592E+03	 1.573E+02	 1.357E+02	 3.082E+02	-2.535E+03	 5.835E+03	 3.220E+01	 2.135E+03	-1.264E+03	-7.216E+02	 3.995E+02	 2.164E+01	-3.464E+03	 2.161E+03	 7.351E+02	 7.027E+02	 4.045E+05	 2.012E+03	-7.529E+03	 2.088E+06	 1.769E+05	 1.355E+06	 2.041E+03	 2.219E+01	 5.731E-01	-1.205E+06	 2.285E+02	 4.729E+02	 8.228E+06	-6.261E+05	 3.502E+07	-1.004E+06	 3.357E+07	-8.262E+05	 3.780E+04	-8.591E+06	-1.382E+06	 2.672E+07	 7.105E+05
   30.0000	 8.403E+00	 1.017E-01	 1.345E-01	 3.938E+00	-3.729E-01	 0.000E+00	 0.000E+00	 3.534E+02	 9.577E+00	 9.288E+02	 3.116E-01	-6.106E-02	 0.000E+00	 1.744E-02	-2.887E-03	 1.053E-02	 6.425E-02	-3.960E+01	 1.920E+03	 1.719E+02	-6.835E+00	 2.087E+02	 5.314E+02	 6.585E+03	 1.831E+00	 2.148E+03	-1.475E+03	 3.740E+02	 4.231E+02	-3.989E+01	-3.462E+03	 2.265E+03	 5.469E+02	 3.585E+02	 3.959E+05	-2.560E+03	-5.694E+03	 2.020E+06	 7.707E+05	 6.507E+05	 2.030E+03	 2.211E+01	-1.035E+00	-6.369E+05	-4.356E+02	-1.980E+03	 6.098E+06	 6.128E+06	 3.812E+07	 6.583E+06	 4.073E+07	-2.129E+05	-4.572E+04	-8.590E+06	 7.040E+06	 3.997E+07	 3.590E+05
   31.0000	 8.439E+00	 2.345E-01	 3.065E-01	 4.048E+00	-7.987E-01	 0.000E+00	 0.000E+00	 5.080E+01	 9.568E+00	 9.282E+02	 3.237E-01	-4.796E-02	 0.000E+00	 1.940E-02	-1.998E-03	 7.425E-03	 6.837E-02	 4.198E+02	 1.985E+03	 1.843E+02	-1.627E+02	 2.681E+02	 3.754E+03	 6.855E+03	-4.143E+01	 2.119E+03	-6.725E+01	 1.240E+03	 4.289E+02	-2.789E+01	-3.467E+03	 2.232E+03	 9.760E+02	 5.935E+02	 3.940E+05	-6.785E+03	 4.330E+02	 2.009E+06	 9.379E+05	-4.429E+05	 2.025E+03	 2.206E+01	-9.242E-01	 1.212E+05	 1.100E+03	 5.783E+03	 8.535E+05	 4.386E+06	 3.818E+07	 4.578E+06	 4.381E+07	 5.294E+05	-1.862E+04	-8.595E+06	 4.764E+06	 4.962E+07	 5.940E+05
   32.0000	 8.699E+00	 1.916E-01	-1.046E-01	 3.865E+00	-8.422E-01	 0.000E+00	 0.000E+00	 1.081E+02	 9.546E+00	 9.261E+02	 3.035E-01	-1.133E-03	 0.000E+00	 1.852E-02	 7.380E-04	-2.380E-03	 6.489E-02	 4.875E+02	 1.895E+03	 1.785E+02	-1.884E+02	 4.233E+02	 4.218E+03	 6.523E+03	-4.661E+01	 2.123E+03	 1.288E+03	 1.046E+03	 4.094E+02	 3.226E+01	-3.472E+03	 2.133E+03	 5.361E+02	 7.315E+02	 3.996E+05	-4.961E+03	 6.189E+03	 2.083E+06	 3.740E+05	-1.172E+06	 2.013E+03	 2.199E+01	-3.878E-01	 2.939E+05	 4.693E+01	 2.646E+01	-1.632E+06	-1.233E+06	 3.604E+07	-1.639E+06	 4.150E+07	 6.928E+05	 4.055E+04	-8.600E+06	-2.044E+06	 4.826E+07	 7.329E+05
   33.0000	 8.776E+00	 7.675E-01	-6.831E-02	 3.163E+00	-4.117E-01	 0.000E+00	 0.000E+00	 1.653E+02	 9.522E+00	 9.237E+02	 3.074E-01	-2.933E-02	 0.000E+00	 1.796E-02	-9.637E-04	 3.698E-03	 6.425E-02	 7.387E+01	 1.531E+03	 1.498E+02	-5.878E+01	 5.380E+02	 1.392E+03	 5.363E+03	-1.292E+01	 2.106E+03	 1.268E+03	-3.877E+02	 4.118E+02	-2.975E+00	-3.465E+03	 2.166E+03	 8.236E+02	 5.195E+02	 4.003E+05	 3.181E+03	 6.889E+03	 2.091E+06	-7.058E+05	-7.944E+05	 1.999E+03	 2.189E+01	 4.101E-02	 6.107E+04	 7.448E+02	 4.186E+03	-1.205E+06	 2.240E+06	 3.682E+07	 2.224E+06	 4.067E+07	 4.665E+05	 1.945E+03	-8.592E+06	 2.205E+06	 4.495E+07	 5.176E+05
   34.0000	 8.038E+00	 2.547E-01	-1.614E-01	 2.908E+00	 5.309E-02	 0.000E+00	 0.000E+00	 2.224E+02	 9.511E+00	 9.227E+02	 3.098E-01	-6.728E-02	 0.000E+00	 1.769E-02	-3.246E-03	 1.182E-02	 6.431E-02	-4.242E+02	 1.395E+03	 1.491E+02	 1.057E+02	 4.985E+02	-2.023E+03	 5.258E+03	 1.614E+01	 2.102E+03	 5.061E+02	-1.406E+03	 4.158E+02	-4.873E+01	-3.466E+03	 2.250E+03	 6.122E+02	 5.141E+02	 3.932E+05	 7.357E+03	 1.461E+03	 2.016E+06	-1.228E+06	 1.964E+05	 1.989E+03	 2.181E+01	-4.471E-01	-1.065E+05	-3.194E+02	-1.479E+03	-1.023E+06	 6.868E+06	 3.775E+07	 7.399E+06	 4.032E+07	 3.133E+05	-5.326E+04	-8.594E+06	 7.932E+06	 4.299E+07	 5.127E+05
   35.0000	 7.870E+00	 5.045E-01	 2.367E-01	 3.247E+00	 1.515E-01	 0.000E+00	 0.000E+00	 2.795E+02	 9.500E+00	 9.214E+02	 2.970E-01	-2.617E-02	 0.000E+00	 1.819E-02	-7.984E-04	 3.068E-03	 6.355E-02	-5.694E+02	 1.553E+03	 1.559E+02	 1.552E+02	 3.456E+02	-2.993E+03	 5.732E+03	 3.136E+01	 2.115E+03	-6.888E+02	-1.370E+03	 4.020E+02	 1.047E+00	-3.468E+03	 2.146E+03	 4.574E+02	 2.701E+02	 3.936E+05	 5.530E+03	-6.082E+03	 2.035E+06	-4.833E+05	 9.183E+05	 1.981E+03	 2.175E+01	-3.600E-01	 3.941E+05	-1.659E+03	-9.082E+03	-2.707E+06	 1.857E+06	 3.509E+07	 1.841E+06	 4.067E+07	 7.706E+05	 8.140E+02	-8.596E+06	 1.832E+06	 4.779E+07	 2.655E+05
   36.0000	 8.175E+00	 3.217E-01	-5.993E-02	 3.677E+00	-1.737E-01	 0.000E+00	 0.000E+00	 3.363E+02	 9.454E+00	 9.168E+02	 3.016E-01	-1.359E-03	 0.000E+00	 1.845E-02	 7.084E-04	-2.277E-03	 6.449E-02	-2.518E+02	 1.776E+03	 1.679E+02	 4.954E+01	 2.145E+02	-7.511E+02	 6.308E+03	 1.973E+01	 2.070E+03	-1.429E+03	 1.714E+01	 4.034E+02	 2.978E+01	-3.467E+03	 2.059E+03	 6.238E+02	 4.413E+02	 3.903E+05	-3.320E+03	-7.082E+03	 2.019E+06	 7.979E+05	 1.080E+06	 1.960E+03	 2.162E+01	 5.042E-01	 4.076E+05	 6.168E-01	-2.342E+02	-3.195E+06	-1.175E+06	 3.573E+07	-1.572E+06	 4.116E+07	 8.016E+05	 3.968E+04	-8.593E+06	-1.969E+06	 4.857E+07	 4.446E+05
   37.0000	 8.500E+00	 3.646E-01	 1.714E-02	 3.943E+00	-6.628E-01	 0.000E+00	 0.000E+00	 3.300E+01	 9.442E+00	 9.159E+02	 3.192E-01	-5.181E-02	 0.000E+00	 1.917E-02	-2.348E-03	 8.602E-03	 6.794E-02	 2.714E+02	 1.929E+03	 1.803E+02	-1.205E+02	 2.246E+02	 2.820E+03	 6.705E+03	-2.090E+01	 2.073E+03	-6.683E+02	 1.685E+03	 4.267E+02	-2.911E+01	-3.467E+03	 2.213E+03	 4.841E+02	 8.561E+02	 3.964E+05	-5.887E+03	-4.117E+03	 2.060E+06	 9.977E+05	 3.936E+05	 1.946E+03	 2.149E+01	 9.714E-01	 1.732E+05	-8.852E+02	-4.603E+03	-1.605E+06	 5.020E+06	 3.842E+07	 5.358E+06	 4.320E+07	 6.027E+05	-3.422E+04	-8.595E+06	 5.700E+06	 4.887E+07	 8.557E+05
   38.0000	 8.576E+00	-1.702E-01	 3.147E-02	 3.664E+00	-8.362E-01	 0.000E+00	 0.000E+00	 8.962E+01	 9.439E+00	 9.156E+02	 3.011E-01	-5.794E-02	 0.000E+00	 1.729E-02	-2.634E-03	 9.692E-03	 6.264E-02	 4.967E+02	 1.794E+03	 1.704E+02	-1.955E+02	 3.651E+02	 4.324E+03	 6.222E+03	-4.340E+01	 2.097E+03	 4.799E+02	 1.585E+03	 4.133E+02	-3.855E+01	-3.464E+03	 2.204E+03	 3.631E+02	 2.801E+02	 3.898E+05	-4.664E+03	 5.487E+03	 2.019E+06	 4.919E+05	-9.924E+05	 1.941E+03	 2.144E+01	 7.916E-01	-1.518E+05	 2.319E+03	 1.299E+04	 6.453E+05	 5.680E+06	 3.649E+07	 6.022E+06	 3.951E+07	 2.466E+05	-3.301E+04	-8.592E+06	 6.353E+06	 4.206E+07	 2.736E+05
   39.0000	 8.739E+00	-2.710E-01	 9.940E-02	 3.429E+00	-5.919E-01	 0.000E+00	 0.000E+00	 1.462E+02	 9.428E+00	 9.145E+02	 2.846E-01	-6.571E-03	 0.000E+00	 1.677E-02	 4.163E-04	-1.221E-03	 5.998E-02	 2.483E+02	 1.668E+03	 1.660E+02	-1.149E+02	 5.060E+02	 2.603E+03	 5.912E+03	-2.697E+01	 2.055E+03	 1.812E+03	 1.051E+01	 3.901E+02	 2.407E+01	-3.469E+03	 2.093E+03	 3.782E+02	 8.846E+02	 3.966E+05	 1.134E+02	 7.808E+03	 2.103E+06	-2.413E+05	-1.195E+06	 1.937E+03	 2.143E+01	 4.935E-01	-1.144E+05	 7.430E+02	 4.013E+03	 1.957E+06	-5.656E+05	 3.423E+07	-9.064E+05	 3.830E+07	 2.619E+05	 3.446E+04	-8.597E+06	-1.251E+06	 4.142E+07	 8.910E+05
   40.0000	 8.342E+00	-2.749E-01	-1.199E-01	 2.986E+00	-1.057E-01	 0.000E+00	 0.000E+00	 2.028E+02	 9.419E+00	 9.140E+02	 3.165E-01	-1.758E-02	 0.000E+00	 1.799E-02	-2.806E-04	 1.239E-03	 6.554E-02	-2.507E+02	 1.442E+03	 1.534E+02	 5.148E+01	 5.247E+02	-8.695E+02	 5.391E+03	 7.129E+00	 2.065E+03	 1.085E+03	-8.880E+02	 4.283E+02	 9.397E+00	-3.468E+03	 2.076E+03	 6.154E+02	 2.511E+02	 3.934E+05	 6.326E+03	 2.378E+03	 2.067E+06	-9.746E+05	-7.347E+04	 1.932E+03	 2.138E+01	 4.804E-01	-3.529E+05	-1.038E+03	-6.136E+03	 3.115E+06	 8.232E+05	 3.838E+07	 6.689E+05	 4.147E+07	 6.623E+04	 1.486E+04	-8.596E+06	 5.199E+05	 4.282E+07	 2.500E+05
   41.0000	 8.491E+00	 5.145E-02	 4.663E-01	 2.971E+00	 1.688E-01	 0.000E+00	 0.000E+00	 2.593E+02	 9.409E+00	 9.127E+02	 3.117E-01	-6.336E-02	 0.000E+00	 1.733E-02	-3.025E-03	 1.103E-02	 6.380E-02	-5.601E+02	 1.413E+03	 1.516E+02	 1.522E+02	 3.972E+02	-2.949E+03	 5.379E+03	 3.104E+01	 2.078E+03	-5.422E+02	-1.748E+03	 4.355E+02	-4.370E+01	-3.463E+03	 2.227E+03	 4.051E+02	 6.435E+02	 3.893E+05	 4.635E+03	-8.439E+02	 1.977E+06	-9.166E+05	 3.908E+05	 1.925E+03	 2.133E+01	-4.300E-01	-4.290E+05	-4.749E+02	-2.202E+03	 2.829E+06	 6.412E+06	 3.794E+07	 6.898E+06	 4.008E+07	-1.650E+04	-4.881E+04	-8.591E+06	 7.386E+06	 4.044E+07	 6.394E+05
   42.0000	 8.523E+00	 2.948E-01	 8.484E-02	 3.674E+00	-5.774E-02	 0.000E+00	 0.000E+00	 3.157E+02	 9.414E+00	 9.130E+02	 2.675E-01	-3.505E-02	 0.000E+00	 1.555E-02	-1.278E-03	 4.839E-03	 5.550E-02	-3.735E+02	 1.770E+03	 1.683E+02	 9.729E+01	 2.430E+02	-1.685E+03	 6.326E+03	 3.096E+01	 2.082E+03	-1.058E+03	-4.349E+02	 3.668E+02	-1.149E+01	-3.464E+03	 2.134E+03	 8.185E+02	 2.414E+02	 3.926E+05	-7.607E+02	-7.046E+03	 2.081E+06	 4.027E+05	 9.561E+05	 1.925E+03	 2.133E+01	-7.611E-01	 1.953E+04	 1.494E+03	 8.357E+03	 2.044E+05	 2.901E+06	 3.160E+07	 2.942E+06	 3.529E+07	 3.559E+05	-3.352E+03	-8.591E+06	 2.976E+06	 3.892E+07	 2.391E+05
   43.0000	 8.215E+00	 1.097E-01	 3.651E-01	 3.610E+00	-4.657E-01	 0.000E+00	 0.000E+00	 1.221E+01	 9.400E+00	 9.119E+02	 3.090E-01	-1.482E-03	 0.000E+00	 1.925E-02	 6.578E-04	-2.115E-03	 6.728E-02	 8.642E+01	 1.761E+03	 1.645E+02	-5.815E+01	 1.977E+02	 1.505E+03	 6.168E+03	-7.645E+00	 2.017E+03	-1.754E+03	 1.035E+03	 4.173E+02	 3.011E+01	-3.464E+03	 2.008E+03	 1.897E+01	 4.564E+02	 3.838E+05	-2.588E+03	-4.260E+03	 1.931E+06	 6.861E+05	 5.915E+05	 1.921E+03	 2.132E+01	-2.947E-01	 3.435E+05	-1.319E+02	-8.341E+02	-2.264E+06	-1.093E+06	 3.725E+07	-1.460E+06	 4.311E+07	 7.691E+05	 3.664E+04	-8.591E+06	-1.827E+06	 5.037E+07	 4.531E+05