
FAST Summary File

Predictions were generated on 28-Mar-2017 at 18:22:27 using FAST (v8.15.00a-bjj, 12-Apr-2016), compiled as a 64-bit application using single precision
  compiled with
    NWTC Subroutine Library (v2.08.00, 5-Apr-2016)
    ElastoDyn (v1.03.02a-bjj, 8-Apr-2016)
    BeamDyn (unknown version, unknown date) [not called]
    InflowWind (unknown version, unknown date) [not called]
    AeroDyn14 (unknown version, unknown date) [not called]
    AeroDyn (unknown version, unknown date) [not called]
    ServoDyn (v1.05.00a-bjj, 11-Mar-2016)
    HydroDyn (v2.05.00, 15-Mar-2016)
    SubDyn (v1.03.00, 11-Apr-2016)
    MAP (unknown version, unknown date) [not called]
    FEAMooring (unknown version, unknown date) [not called]
    MoorDyn (unknown version, unknown date) [not called]
    OrcaFlexInterface (unknown version, unknown date) [not called]
    IceFloe (unknown version, unknown date) [not called]
    IceDyn (unknown version, unknown date) [not called]


Modeling a fixed-bottom offshore turbine
Description from the FAST input file: 
  FAST Certification Test #18: NREL 5.0 MW Baseline Wind Turbine (Onshore)

Interpolation order for input/output time histories: 2 (quadratic)
Number of correction iterations:  0
Number of rows in Jacobian matrix used for coupling ElastoDyn, SubDyn, HydroDyn, OrcaFlex, and/or BeamDyn:    498


   Requested Time Steps  
  -------------------------------------------------
  Component          Time Step (s)    Subcycles (-)
  -----------------  ---------------  -------------
  FAST (glue code)    6.250E-03
  ElastoDyn           6.250E-03              1
  ServoDyn            6.250E-03              1
  HydroDyn            6.250E-03              1
  SubDyn              6.250E-03              1
  FAST output files   6.250E-03              1


   Requested Channels in FAST Output File(s)  
  --------------------------------------------
  Number  Name        Units       Generated by
  ------  ----------  ----------  ------------
       1  Time        (s)         FAST
       2  OoPDefl1    (m)         ElastoDyn
       3  IPDefl1     (m)         ElastoDyn
       4  TwstDefl1   (deg)       ElastoDyn
       5  BldPitch1   (deg)       ElastoDyn
       6  Azimuth     (deg)       ElastoDyn
       7  RotSpeed    (rpm)       ElastoDyn
       8  GenSpeed    (rpm)       ElastoDyn
       9  TTDspFA     (m)         ElastoDyn
      10  TTDspSS     (m)         ElastoDyn
      11  TTDspTwst   (deg)       ElastoDyn
      12  Spn2MLxb1   (kN·m)      ElastoDyn
      13  Spn2MLyb1   (kN·m)      ElastoDyn
      14  RootFxb1    (kN)        ElastoDyn
      15  RootFyb1    (kN)        ElastoDyn
      16  RootFzb1    (kN)        ElastoDyn
      17  RootMxb1    (kN·m)      ElastoDyn
      18  RootMyb1    (kN·m)      ElastoDyn
      19  RootMzb1    (kN·m)      ElastoDyn
      20  RotTorq     (kN·m)      ElastoDyn
      21  LSShftFxa   (kN)        ElastoDyn
      22  LSSGagMza   (kN·m)      ElastoDyn
      23  YawBrFxp    (kN)        ElastoDyn
      24  YawBrFyp    (kN)        ElastoDyn
      25  YawBrFzp    (kN)        ElastoDyn
      26  YawBrMxp    (kN·m)      ElastoDyn
      27  YawBrMyp    (kN·m)      ElastoDyn
      28  YawBrMzp    (kN·m)      ElastoDyn
      29  TwrBsFxt    (kN)        ElastoDyn
      30  TwrBsFyt    (kN)        ElastoDyn
      31  TwrBsFzt    (kN)        ElastoDyn
      32  TwrBsMxt    (kN·m)      ElastoDyn
      33  TwrBsMyt    (kN·m)      ElastoDyn
      34  TwrBsMzt    (kN·m)      ElastoDyn
      35  GenPwr      (kW)        ServoDyn
      36  GenTq       (kN·m)      ServoDyn
      37  Wave1Elev   (m)         HydroDyn
      38  HydroFxi    (N)         HydroDyn
      39  HydroFyi    (N)         HydroDyn
      40  HydroMxi    (N·m)       HydroDyn
      41  HydroMyi    (N·m)       HydroDyn
      42  M2N1MKxe    (N*m)       SubDyn
      43  M2N1MKye    (N*m)       SubDyn
      44  M1N1MKxe    (N*m)       SubDyn
      45  M1N1MKye    (N*m)       SubDyn
      46  -ReactFXss  (N)         SubDyn
      47  -ReactFYss  (N)         SubDyn
      48  -ReactFZss  (N)         SubDyn
      49  -ReactMXss  (Nm)        SubDyn
      50  -ReactMYss  (Nm)        SubDyn
      51  -ReactMZss  (Nm)        SubDyn
